4
Lattice="19.317242 0.0 0.0 0.0 16.316386 0.0 0.0 0.0 16.61913" Properties=species:S:1:pos:R:3:forces:R:3 Name=Ammonia_1 energy=-444.53324085362846 stress="-4.5907880759972583e-05 -1.2854206612792324e-05 -0.0 -1.2854206612792324e-05 -1.2854206612792324e-05 -0.0 -0.0 -0.0 -7.345260921595614e-05" pbc="T T T"
N       8.07990300       8.11158200       8.30956500       0.07869067      -0.11035946       0.00000000 
H       7.50000000       8.29458900       7.50000000      -0.11903205       0.00355712      -0.24675391 
H       7.50000000       8.29458900       9.11913000      -0.11903205       0.00355712       0.24675391 
H       8.80915000       8.81638600       8.30956500       0.15937369       0.10324548       0.00000000 
3
Lattice="18.614657 0.0 0.0 0.0 16.136244 0.0 0.0 0.0 16.517122" Properties=species:S:1:pos:R:3:forces:R:3 Name=Water_1 energy=-612.5730135403201 stress="-9.640654959594242e-05 4.958051122077039e-05 -0.0 4.958051122077039e-05 -0.0001101789138239342 -0.0 -0.0 -0.0 -9.181576151994517e-06" pbc="T T T"
O       7.82216765       7.95339756       8.25856100       0.00516560      -0.57406666       0.00000000 
H       7.43891565       8.83042056       8.25856100      -0.33429355       0.59153319       0.00000000 
H       8.77349765       8.10862956       8.25856100       0.32912794      -0.01746653       0.00000000 
5
Lattice="20.958976 0.0 0.0 0.0 17.33318 0.0 0.0 0.0 15.0" Properties=species:S:1:pos:R:3:forces:R:3 Name=Formic_acid_1 energy=-1450.0965050055743 stress="3.1217358916781356e-05 -0.0001101789138239342 -0.0 -0.0001101789138239342 -0.0003525725242365894 -0.0 -0.0 -0.0 -5.5089456911967096e-06" pbc="T T T"
C       8.59059200       8.48689800       7.50000000      -0.49471984      -2.27065227       0.00000000 
O       8.98620800       9.74027900       7.50000000       1.13818469       1.86426345       0.00000000 
O       9.30905300       7.50000000       7.50000000       0.07857780       0.27553021       0.00000000 
H       7.50000000       8.40776100       7.50000000      -0.13338780       0.21639664       0.00000000 
H       9.98065500       9.77378500       7.50000000      -0.58865484      -0.08553803       0.00000000 
6
Lattice="21.234122 0.0 0.0 0.0 18.954072 0.0 0.0 0.0 15.0" Properties=species:S:1:pos:R:3:forces:R:3:stress:R:1 Name=Formamide_1 energy=-1282.1706308722719 pbc="T T T"
C       8.59841200       9.52991900       7.50000000      -0.38396135       1.24179423       0.00000000       0.00001928 
O       9.16486100      10.62067000       7.50000000       0.14545785      -0.01606657       0.00000000      -0.00023780 
N       9.20929100       8.33455200       7.50000000       0.82794947      -0.72663746       0.00000000       0.00000367 
H       8.65246500       7.50000000       7.50000000       0.02425964      -0.35094093       0.00000000      -0.00000000 
H      10.22981700       8.26925400       7.50000000      -0.47752868       0.02331888       0.00000000      -0.00000000 
H       7.50000000       9.46333500       7.50000000      -0.13617668      -0.17146816       0.00000000       0.00003948 
12
Lattice="20.338124 0.0 0.0 0.0 25.972813199999997 0.0 0.0 0.0 15.0" Properties=species:S:1:pos:R:3:forces:R:3 Name=Uracil_1_h-bonded energy=-3048.1459806366547 stress="-0.0005049866883596985 -4.4071565529573677e-05 -0.0 -4.4071565529573677e-05 -0.0004425519705261357 -0.0 -0.0 -0.0 3.672630460797807e-06" pbc="T T T"
O       8.70273040      13.99857590       7.50000000       0.02606996      -0.28025590       0.00000000 
C       9.54091560      14.90067440       7.50000000      -1.36213266      -0.73729931       0.00000000 
N      10.88957130      14.67467540       7.50000000       1.02271747      -1.11194401       0.00000000 
C      11.80579100      15.69168300       7.50000000       0.79272073       0.18703130       0.00000000 
C      11.44596560      16.99258290       7.50000000       0.33375362       0.13122088       0.00000000 
C      10.04046150      17.34856150       7.50000000       0.30788626      -0.27409065       0.00000000 
N       9.19133900      16.22604990       7.50000000      -0.38168181       0.45315462       0.00000000 
O       9.57183910      18.47281320       7.50000000      -0.34671635       0.97667904       0.00000000 
H      12.17941240      17.78027080       7.50000000       0.03215010       0.04511978       0.00000000 
H      11.19231350      13.69258860       7.50000000      -0.28958335       0.62305697       0.00000000 
H       8.19903520      16.41879160       7.50000000      -0.19785873      -0.01376260       0.00000000 
H      12.83812400      15.37474830       7.50000000       0.06267450       0.00108989       0.00000000 
12
Lattice="25.5677471 0.0 0.0 0.0 20.294033300000002 0.0 0.0 0.0 15.8344466" Properties=species:S:1:pos:R:3:forces:R:3 Name=2-pyridoxine energy=-2350.5966995915232 stress="-0.00012395127805192599 -1.0099733767193969e-05 -1.8363152303989035e-06 -1.0099733767193969e-05 -0.0004260251334525456 -7.345260921595614e-05 -1.8363152303989035e-06 -7.345260921595614e-05 -2.2953940379986292e-05" pbc="T T T"
O      11.38624693       8.26118020       7.54991565       0.28798849      -0.22908941      -0.03542029 
N      11.31961323      10.51119980       7.93645185       1.69902354       0.46700669       0.07894212 
C       8.59812843      10.51668390       7.95331775      -0.34610340      -0.25875968      -0.11768916 
C       9.30060843      11.72532810       8.16729695       0.05430556       0.32765702       0.03418230 
C      10.66591803      11.67772180       8.15106005      -0.17051068       0.82704958       0.17262052 
C      10.70648493       9.28326780       7.72728035      -0.11888087      -1.01011650      -0.22662038 
C       9.26826503       9.34182200       7.74146325      -0.45882647      -0.05754926       0.01897243 
H       7.51606373      10.51775980       7.95836365      -0.06426729       0.02590746       0.01890404 
H       8.79183483      12.65977300       8.33866315      -0.01930359       0.04936827       0.02316410 
H      11.29094863      12.54542660       8.30572355      -0.00568368       0.04682596       0.01541299 
H       8.74374563       8.41217180       7.57929485       0.02509114      -0.05501955       0.00367256 
H      12.35734163      10.50822970       7.92457555      -0.88283275      -0.13328033       0.01385850 
15
Lattice="26.9766562 0.0 0.0 0.0 16.7488751 0.0 0.0 0.0 20.4269438" Properties=species:S:1:pos:R:3:forces:R:3 Name=Adenine_Watson-Crick_complex energy=-3346.839692109611 stress="-0.0005297769439700837 -9.181576151994517e-06 -8.997944628954627e-05 -9.181576151994517e-06 -1.0099733767193969e-05 5.5089456911967096e-06 -8.997944628954627e-05 5.5089456911967096e-06 -0.00045540617713892803" pbc="T T T"
N      14.42332792       8.34645751       9.83458082      -0.55467000      -0.00326633      -0.15625082 
C      15.16227622       8.33866101      10.95590402       0.21692346      -0.05757009      -0.76810524 
C      16.56310792       8.36498961      10.81292862      -0.55955381      -0.05745541       0.12271027 
C      17.05292332       8.39398221       9.50748522      -0.15535222       0.06538315      -0.25698973 
N      16.34146342       8.40024071       8.37251282       0.36836684       0.01033198      -0.26764361 
C      15.03738842       8.37569451       8.63267152      -0.75798358      -0.00619790      -0.06469770 
N      17.57689482       8.36899471      11.74245102       0.52221239       0.00445546       0.24408614 
C      18.67130452       8.39983471      11.00069002       0.63473312       0.04299142       0.91489852 
N      18.41779952       8.41567801       9.65674502       0.37493266       0.01562279      -0.53205149 
N      14.55993012       8.29790101      12.15261142      -0.62237254      -0.01534691       0.68875791 
H      14.36775592       8.37946361       7.78190152       0.01647563       0.00121485      -0.08231310 
H      19.67657152       8.41199181      11.38735482       0.05218002      -0.00049545       0.00519157 
H      19.09184922       8.43931311       8.90979132       0.13505208       0.00473314      -0.13461602 
H      13.54700392       8.33206111      12.21739052       0.34809651      -0.01013272      -0.01084183 
H      15.13269202       8.33969811      12.97538832      -0.01904082       0.00573202       0.29786539 
5
Lattice="16.777102 0.0 0.0 0.0 17.052678 0.0 0.0 0.0 20.896568000000002" Properties=species:S:1:pos:R:3:forces:R:3 Name=Methane_1 energy=-326.4855937496712 stress="-2.7544728455983548e-06 -0.0 -0.0 -0.0 -9.181576151994517e-07 -0.0 -0.0 -0.0 1.8363152303989035e-06" pbc="T T T"
C       8.38855100       8.52619900      12.30744500       0.00000000       0.01558268      -0.04784694 
H       7.50000000       9.03939900      11.94296900      -0.02290930       0.00779687       0.01056595 
H       9.27710200       9.03939900      11.94296900       0.02290930       0.00779687       0.01056595 
H       8.38855100       7.50000000      11.94315200       0.00000000      -0.02696342       0.01009209 
H       8.38855100       8.52642800      13.39656800       0.00000000      -0.00421327       0.01662270 
6
Lattice="16.744844 0.0 0.0 0.0 16.744844 0.0 0.0 0.0 20.566616" Properties=species:S:1:pos:R:3:forces:R:3:stress:R:1 Name=Ethene_1 energy=-584.3712705426266 pbc="T T T"
C       7.90049700       7.90049700       8.42419700       0.10939735       0.10939735      -0.03405529       0.00001010 
C       8.84434700       8.84434700       8.42419700      -0.10939735      -0.10939735      -0.03405529       0.00001010 
H       7.50000000       7.50000000       9.34718300      -0.02569226      -0.02569226       0.00477711       0.00001010 
H       9.24484400       9.24484400       9.34718300       0.02569226       0.02569226       0.00477711      -0.00000000 
H       7.50195800       7.50195800       7.50000000      -0.03758490      -0.03758490       0.02927818      -0.00000000 
H       9.24288600       9.24288600       7.50000000       0.03758490       0.03758490       0.02927818       0.00000826 
12
Lattice="19.9485351 0.0 0.0 0.0 19.350013699999998 0.0 0.0 0.0 19.0796789" Properties=species:S:1:pos:R:3:forces:R:3 Name=Benzene energy=-1653.7170921999493 stress="-0.00019464941442228376 -9.181576151994517e-07 -0.0 -9.181576151994517e-07 -0.00019373125680708432 -0.0 -0.0 -0.0 -2.7544728455983548e-06" pbc="T T T"
C      11.36748535       9.71129816       8.90655527       0.20165933       0.04364191       0.00244872 
C      10.70230395       8.48660536       8.90653387       0.07299593      -0.21845121       0.00251737 
C       9.30908785       8.45029916       8.90655527      -0.12915320      -0.22820829       0.00181031 
C       8.58106345       9.63870966       8.90653387      -0.20165933      -0.04364191       0.00244872 
C       9.24622945      10.86342316       8.90655527      -0.07299593       0.21845121       0.00251737 
C      10.63943525      10.89970556       8.90653387       0.12915320       0.22820829       0.00181031 
H      12.44854125       9.73945526       8.90811157       0.06552302       0.00176660      -0.00221038 
H      11.26722635       7.56446596       8.90809547       0.03801530      -0.06083539      -0.00230165 
H       8.79294465       7.49999876       8.90811157      -0.03357321      -0.06045306      -0.00226463 
H       7.50000615       9.61054216       8.90809547      -0.06552302      -0.00176660      -0.00221038 
H       8.68131675      11.78556646       8.90811157      -0.03801530       0.06083539      -0.00230165 
H      11.15557015      11.85001246       8.90809547       0.03357321       0.06045306      -0.00226463 
12
Lattice="21.6060844 0.0 0.0 0.0 19.5838098 0.0 0.0 0.0 19.2875954" Properties=species:S:1:pos:R:3:forces:R:3 Name=Benzene_1_parallel_displaced energy=-1653.7111519548514 stress="-5.876208737276491e-05 7.528892444635504e-05 -0.0 7.528892444635504e-05 -0.00011201522905433311 -0.0 -0.0 -0.0 -0.0001772044197334942" pbc="T T T"
C       9.75521700       8.37023130       9.64379770       0.14746922      -0.18505695       0.00000000 
C       9.34853880       8.93645900      10.85000250       0.10205634      -0.05876668       0.25856350 
C       9.34853880       8.93645900       8.43759290       0.10205634      -0.05876668      -0.25856350 
C       8.53624520      10.06906590      10.85075160      -0.12310596       0.10102147       0.23804379 
C       8.13156410      10.63692600       9.64379770      -0.11336688       0.15136933       0.00000000 
C       8.53624520      10.06906590       8.43684380      -0.12310596       0.10102147      -0.23804379 
H       9.66918880       8.49984560       7.50148270       0.01174917      -0.03146233      -0.06198493 
H       8.22054790      10.50821150       7.50000000      -0.00858414       0.02145868      -0.05269990 
H       7.50000000      11.51517490       9.64379770      -0.02262931       0.04790582       0.00000000 
H       8.22054790      10.50821150      11.78759540      -0.00858414       0.02145868       0.05269990 
H       9.66918880       8.49984560      11.78611270       0.01174917      -0.03146233       0.06198493 
H      10.39701690       7.50000000       9.64379770       0.02429615      -0.07872075       0.00000000 
10
Lattice="18.6122367 0.0 0.0 0.0 20.1657118 0.0 0.0 0.0 19.1247972" Properties=species:S:1:pos:R:3:forces:R:3 Name=Pyrazine_1 energy=-1889.3260214253748 stress="-0.00024973887133425085 0.00013221469658872105 -0.0 0.00013221469658872105 -8.722497344394792e-05 -0.0 -0.0 -0.0 -0.00015608679458390678" pbc="T T T"
C       8.05892895       8.91103471       8.86625980      -0.22114804       0.13888097      -0.17908376 
C       8.05892895       8.91103471      10.25853740      -0.22114804       0.13888097       0.17908376 
N       9.04716735       8.35927881      10.97687820      -0.08442783       0.06519649       0.17256267 
C      10.03765105       7.81763381      10.25912740       0.37035301      -0.21945394       0.14415713 
C      10.03765105       7.81763381       8.86566980       0.37035301      -0.21945394      -0.14415713 
N       9.04716735       8.35927881       8.14791900      -0.08442783       0.06519649      -0.17256267 
H       7.24268205       9.36053601       8.31511890      -0.10538438       0.05447371      -0.03890053 
H       7.24268205       9.36053601      10.80967830      -0.10538438       0.05447371       0.03890053 
H      10.85491875       7.37002771      10.80995900       0.04060723      -0.03909722       0.03931525 
H      10.85491875       7.37002771       8.31483820       0.04060723      -0.03909722      -0.03931525 
12
Lattice="19.595041600000002 0.0 0.0 0.0 20.2221728 0.0 0.0 0.0 19.7418109" Properties=species:S:1:pos:R:3:forces:R:3 Name=Uracil_1_stack energy=-3048.1704733311585 stress="-4.866235360557094e-05 0.00011844233236072926 5.2334984066368754e-05 0.00011844233236072926 -0.0004811145903645127 8.997944628954627e-05 5.2334984066368754e-05 8.997944628954627e-05 -0.0005637487757324633" pbc="T T T"
N      11.80887950       8.89787910       9.77283934       0.12704489      -0.65301469      -0.10105670 
C      11.82322840       9.41390670       8.50650374       0.06775371      -0.00945395      -0.70954811 
H      12.09504160       8.72002720       7.72526074       0.03073882      -0.03310347      -0.04953539 
C      11.51204340      10.70305150       8.25841744       0.04670049       0.04456133      -0.24928465 
H      11.52480810      11.10193300       7.25890164      -0.01207647       0.06373045      -0.05548672 
C      11.10648130      11.56862040       9.35031764       0.09630941      -0.21489152      -0.48640155 
O      10.71811340      12.72217280       9.24486094      -0.20774822       0.83388872      -0.04991540 
N      11.17440930      10.95083180      10.60554224      -0.16964036       0.23828316       0.65875571 
H      10.84932480      11.49730930      11.39427764       0.01323115       0.12057471       0.06775577 
C      11.44351170       9.62587510      10.88963334      -0.10035247       0.18292113       0.04042854 
O      11.35862980       9.13928030      12.00071254      -0.01805120      -0.41229593       0.89854553 
H      11.92698430       7.90958180       9.92772004       0.12609076      -0.16120020       0.03574296 
12
Lattice="21.5418768 0.0 0.0 0.0 19.9120474 0.0 0.0 0.0 20.902879" Properties=species:S:1:pos:R:3:forces:R:3 Name=benzene_complex_stack energy=-1653.7063334990535 stress="-0.00014598706081671281 -4.590788075997259e-06 8.263418536795066e-06 -4.590788075997259e-06 -0.0001101789138239342 -6.335287544876216e-05 8.263418536795066e-06 -6.335287544876216e-05 -4.498972314477313e-05" pbc="T T T"
C      10.74986061      11.48788804       9.08750376      -0.02081514       0.17867959       0.15910321 
C       9.49625541      10.93012954       8.84402856      -0.21064791       0.01382456       0.15437803 
C       9.39262931       9.73032844       8.14302286      -0.26322054      -0.13192022      -0.02617717 
C      10.54199221       9.08962124       7.68264386      -0.01417166      -0.13753679      -0.12293935 
C      11.79572301       9.65250944       7.92019726       0.27364354      -0.07009701      -0.09705323 
C      11.89993441      10.85270524       8.62145526       0.20018995       0.11153523       0.10105130 
H      10.83100881      12.41258924       9.64204256       0.01239092       0.07315611      -0.00534892 
H       8.60583461      11.42147864       9.21087066      -0.05895102       0.04211056      -0.02215005 
H       8.41996131       9.29441434       7.95876846      -0.04875789      -0.02597791      -0.04523290 
H      10.46059291       8.16045034       7.13416786       0.00748268      -0.04557203      -0.04247900 
H      12.68751951       9.16194204       7.55204406       0.04164544      -0.03160786      -0.02449721 
H      12.87096951      11.28870224       8.81139626       0.08121189       0.02340604      -0.02865469 
15
Lattice="20.1979064 0.0 0.0 0.0 21.9000706 0.0 0.0 0.0 21.6578661" Properties=species:S:1:pos:R:3:forces:R:3 Name=Adenine_complex_stack energy=-3346.82657567836 stress="-0.0005334495744308814 8.17160277527512e-05 -7.528892444635504e-05 8.17160277527512e-05 -0.0002056673058046772 0.0002341301918758602 -7.528892444635504e-05 0.0002341301918758602 -0.00028738333355742836" pbc="T T T"
N      10.37825193      13.35686799      10.22317422       0.48479153       0.23226703      -0.48112796 
C       9.01409353      13.39577479      10.27776512      -1.04054936       0.25758597      -0.17606606 
H       8.43951023      13.97305809       9.57283542      -0.04059952       0.03049765      -0.00900940 
N       8.50123883      12.66801639      11.25768022      -0.36558567       0.30420984      -0.43388060 
C       9.60922503      12.12146449      11.85911692       0.26801256      -0.23866291       0.47871910 
C       9.75281393      11.24149969      12.94616022      -0.02927689       0.24730901      -0.28604525 
N       8.68024153      10.78225199      13.63907002      -0.43243024      -0.26549031       0.16633906 
H       8.86007553       9.99054849      14.23368372      -0.02090538      -0.17526722       0.20994497 
H       7.80707713      10.77120639      13.13628782      -0.26799174       0.08508269       0.06582358 
N      10.98471353      10.87995239      13.32087532       0.26850853      -0.25795569       0.25772481 
C      12.03418533      11.35731649      12.62572812       0.67328424      -0.29541024       0.31734612 
H      13.00498353      11.02887009      12.97474402       0.05433204      -0.03067789       0.01813245 
N      12.03992803      12.17423059      11.56914612       0.14575095       0.13362409      -0.15130351 
C      10.79416913      12.52801449      11.23532432       0.15480432      -0.13243521       0.07087194 
H      10.95995783      13.77983319       9.51847572       0.14785463       0.10532344      -0.04746976 
6
Lattice="16.847242 0.0 0.0 0.0 17.464506 0.0 0.0 0.0 21.090114" Properties=species:S:1:pos:R:3:forces:R:3:stress:R:1 Name=Ethene energy=-584.3688890023107 pbc="T T T"
C       8.42362100       8.06467500       8.41684624       0.00000000       0.29590518      -0.04456493       0.00000735 
C       8.42362100       9.39983100       8.41684624       0.00000000      -0.29590518      -0.04456493       0.00001836 
H       9.34724200       7.50000000       8.41532024      -0.01016640      -0.04893555       0.02228247       0.00000367 
H       7.50000000       7.50000000       8.41532024       0.01016640      -0.04893555       0.02228247      -0.00000000 
H       7.50000000       9.96450600       8.41532024       0.01016640       0.04893555       0.02228247      -0.00000000 
H       9.34724200       9.96450600       8.41532024      -0.01016640       0.04893555       0.02228247      -0.00000000 
12
Lattice="18.9575334 0.0 0.0 0.0 19.8323075 0.0 0.0 0.0 19.2882964" Properties=species:S:1:pos:R:3:forces:R:3 Name=Benzene energy=-1653.7130492685915 stress="-1.5608679458390678e-05 3.672630460797807e-05 -0.0 3.672630460797807e-05 -0.0001762862621182947 -0.0 -0.0 -0.0 -0.00017353178927269637" pbc="T T T"
C      10.25937292       9.30626599       8.43660560      -0.04336037      -0.07312577      -0.22929021 
C       9.95716512      10.66719409       8.43624420       0.01363096       0.06166791      -0.17442287 
C       9.80642042      11.34801079       9.64414820      -0.07852046       0.18280492       0.00000000 
C       9.95716512      10.66719409      10.85205220       0.01363096       0.06166791       0.17442287 
C      10.25937292       9.30626599      10.85169080      -0.04336037      -0.07312577       0.22929021 
C      10.41091222       8.62619209       9.64414820       0.05186558      -0.17714335       0.00000000 
H      10.37543002       8.77854839       7.50000000       0.02351248      -0.03687142      -0.06241224 
H       9.83615072      11.19436259       7.50009360       0.01078758       0.03982510      -0.06750483 
H       9.57062052      12.40329419       9.64414820      -0.00251222       0.07399224       0.00000000 
H       9.83615072      11.19436259      11.78820280       0.01078758       0.03982510       0.06750483 
H      10.37543002       8.77854839      11.78829640       0.02351248      -0.03687142       0.06241224 
H      10.64776762       7.57098669       9.64414820       0.02002529      -0.06264570       0.00000000 
12
Lattice="19.876579 0.0 0.0 0.0 19.2055789 0.0 0.0 0.0 19.287390000000002" Properties=species:S:1:pos:R:3:forces:R:3 Name=Benzene energy=-1653.7124229985916 stress="-0.00017169547404229747 -3.1217358916781356e-05 -0.0 -3.1217358916781356e-05 -1.1017891382393419e-05 -0.0 -0.0 -0.0 -0.00018546783827028926" pbc="T T T"
C       9.19900703      10.11868466       8.43658710      -0.04083940      -0.02494304      -0.22905830 
C       8.51214383       9.99935166       9.64369500      -0.16842114      -0.05034477       0.00000000 
C       9.19900703      10.11868466      10.85080290      -0.04083940      -0.02494304       0.22905830 
C      10.57251493      10.35744596      10.85076850       0.03390488       0.02252903       0.23534001 
C      11.25933143      10.47656276       9.64369500       0.20063861       0.03842617       0.00000000 
C      10.57251493      10.35744596       8.43662150       0.03390488       0.02252903      -0.23534001 
H       8.66633853      10.02343776       7.50040560      -0.03523697      -0.00108166      -0.06562175 
H       7.44806753       9.80804426       9.64369500      -0.08140447      -0.00114208       0.00000000 
H       8.66633853      10.02343776      11.78698440      -0.03523697      -0.00108166       0.06562175 
H      11.10508853      10.45029466      11.78739000       0.03267795       0.00460819       0.05984140 
H      12.32464653      10.66243736       9.64369500       0.06817357       0.01083591       0.00000000 
H      11.10508853      10.45029466       7.50000000       0.03267795       0.00460819      -0.05984140 
12
Lattice="19.9485083 0.0 0.0 0.0 19.6383744 0.0 0.0 0.0 19.2885126" Properties=species:S:1:pos:R:3:forces:R:3 Name=Benzene energy=-1653.7188597153881 stress="-0.0001726136316574969 5.5089456911967096e-06 -0.0 5.5089456911967096e-06 -8.263418536795066e-06 -0.0 -0.0 -0.0 -0.0001634320555055024" pbc="T T T"
C       9.26448003       8.82875016      10.85195810      -0.12547909      -0.00145344       0.20226946 
C       8.56772013       8.85382026       9.64425630      -0.15121455       0.01720582       0.00000000 
C       9.26448003       8.82875016       8.43655450      -0.12547909      -0.00145344      -0.20226946 
C      10.65821923       8.77866266       8.43639110       0.16041473      -0.00008382      -0.17814942 
C      11.35523203       8.75362096       9.64425630       0.18950007       0.00591071       0.00000000 
C      10.65821923       8.77866266      10.85212150       0.16041473      -0.00008382       0.17814942 
H       8.72430593       8.85054516      11.78830700      -0.05493470      -0.00260710       0.06698984 
H       7.48733443       8.89546716       9.64425630      -0.08971170      -0.00189722       0.00000000 
H       8.72430593       8.85054516       7.50020560      -0.05493470      -0.00260710      -0.06698984 
H      11.19854233       8.76109786       7.50000000       0.01856388      -0.00451949      -0.06548445 
H      12.43584273       8.71619136       9.64425630       0.05429656      -0.00389188       0.00000000 
H      11.19854233       8.76109786      11.78851260       0.01856388      -0.00451949       0.06548445 
12
Lattice="19.950799 0.0 0.0 0.0 19.2871314 0.0 0.0 0.0 22.3847776" Properties=species:S:1:pos:R:3:forces:R:3 Name=Benzene_1_T-shaped energy=-1653.70366610315 stress="3.672630460797807e-06 -0.0 -0.0 -0.0 -0.0001671046859663002 -0.0 -0.0 -0.0 -0.00015516863696870734" pbc="T T T"
C       9.97539950       9.64356570      12.25142409       0.00000000       0.00000000      -0.08018011 
C       9.97539950       8.43755730      12.95006299       0.00000000      -0.26544352      -0.16616166 
C       9.97539950       8.43638900      14.34397929       0.00000000      -0.20386226       0.15667171 
C       9.97539950       9.64356570      15.04096389       0.00000000       0.00000000       0.17396598 
C       9.97539950      10.85074240      14.34397929       0.00000000       0.20386226       0.15667171 
C       9.97539950      10.84957410      12.95006299       0.00000000       0.26544352      -0.16616166 
H       9.97539950       9.64356570      11.17080829       0.00000000       0.00000000      -0.09694036 
H       9.97539950       7.50192700      12.40681049       0.00000000      -0.05921739      -0.02495718 
H       9.97539950       7.50000000      14.88538409       0.00000000      -0.05701653       0.01252590 
H       9.97539950       9.64356570      16.12253869       0.00000000       0.00000000       0.04699719 
H       9.97539950      11.78713140      14.88538409       0.00000000       0.05701653       0.01252590 
H       9.97539950      11.78520440      12.40681049       0.00000000       0.05921739      -0.02495718 
12
Lattice="23.427413 0.0 0.0 0.0 21.1053911 0.0 0.0 0.0 19.2896758" Properties=species:S:1:pos:R:3:forces:R:3 Name=Indole_T-shape_complex energy=-1653.7178180636138 stress="-1.9281309919188485e-05 3.2135516531980806e-05 -0.0 3.2135516531980806e-05 -0.00012486943566712542 -0.0 -0.0 -0.0 -0.00012027864759112817" pbc="T T T"
C      14.22560580      12.17771200       9.64483790      -0.03477957       0.10477940       0.00000000 
C      14.42671550      11.51055090       8.43654610       0.02895191       0.15885535      -0.16112075 
C      14.83148820      10.17595360       8.43647320      -0.05182110      -0.17535926      -0.17188159 
C      15.03509090       9.50896650       9.64483790       0.09856453      -0.08777335       0.00000000 
C      14.83148820      10.17595360      10.85320260      -0.05182110      -0.17535926       0.17188159 
C      14.42671550      11.51055090      10.85312970       0.02895191       0.15885535       0.16112075 
H      13.91610990      13.21383300       9.64483790      -0.03652021       0.06326045       0.00000000 
H      14.26488210      12.02638800       7.50024790      -0.00649461       0.04330766      -0.06538367 
H      14.98400600       9.65755660       7.50000000       0.01281772      -0.03603067      -0.06485531 
H      15.35052000       8.47454510       9.64483790       0.00582766      -0.06181266       0.00000000 
H      14.98400600       9.65755660      11.78967580       0.01281772      -0.03603067       0.06485531 
H      14.26488210      12.02638800      11.78942790      -0.00649461       0.04330766       0.06538367 
13
Lattice="24.4808362 0.0 0.0 0.0 19.866136 0.0 0.0 0.0 18.958026" Properties=species:S:1:pos:R:3:forces:R:3 Name=Phenol_1 energy=-2232.3084541934186 stress="-0.00017995889257909253 -9.457023436554353e-05 -5.049866883596985e-05 -9.457023436554353e-05 -0.00022403045810866622 7.712523967675394e-05 -5.049866883596985e-05 7.712523967675394e-05 -8.17160277527512e-05" pbc="T T T"
C      10.23331220      10.69691889       9.37066191      -0.44179009      -0.78051236       0.18801655 
O      10.85191340      11.86292529       9.03589221       0.45518605       0.81349447      -0.23055159 
H      11.71660570      11.89772489       9.47255191       0.10631023       0.14567665       0.02416503 
C      10.77733710       9.78116099      10.27400581       0.21599966       0.02120954       0.00354761 
C      10.09283890       8.60356359      10.56738051       0.14876969      -0.15624671       0.21712323 
C       8.86609700       8.32993029       9.96859921      -0.06934548      -0.19209123       0.13943067 
C       8.32604510       9.24921849       9.06991001      -0.18810448      -0.06946221      -0.10794160 
C       9.00336820      10.42603389       8.76940021      -0.13919361       0.23160986      -0.24876760 
H      11.72976680       9.98972989      10.74326911       0.09685397       0.02699273       0.05956886 
H      10.52530430       7.90092779      11.26685451      -0.00026611      -0.02936868       0.03284173 