8
Lattice="19.317242 0.0 0.0 0.0 16.316386 0.0 0.0 0.0 16.61913" Properties=species:S:1:pos:R:3:forces:R:3 Name=Ammonia_dimer energy=-889.1988158371581 stress="-0.00015241416412310898 -3.488998937757916e-05 -0.0 -3.488998937757916e-05 -3.580814699277862e-05 -0.0 -0.0 -0.0 -0.00014690521843191228" pbc="T T T"
N       8.07990300       8.11158200       8.30956500       0.04365476      -0.09955646       0.00000000 
H       7.50000000       8.29458900       7.50000000      -0.14934356      -0.01659236      -0.24316877 
H       7.50000000       8.29458900       9.11913000      -0.14934356      -0.01659236       0.24316877 
H       8.80915000       8.81638600       8.30956500       0.21214481       0.14532826      -0.00000000 
N      11.23733900       8.20480400       8.30956500      -0.04365476       0.09955646       0.00000000 
H      11.81724200       8.02179700       7.50000000       0.14934356       0.01659236      -0.24316877 
H      10.50809200       7.50000000       8.30956500      -0.21214481      -0.14532826      -0.00000000 
H      11.81724200       8.02179700       9.11913000       0.14934356       0.01659236       0.24316877 
6
Lattice="18.614657 0.0 0.0 0.0 16.136244 0.0 0.0 0.0 16.517122" Properties=species:S:1:pos:R:3:forces:R:3:stress:R:1 Name=Water_dimer energy=-1225.3583787338225 pbc="T T T"
O       7.82216765       7.95339756       8.25856100      -0.35197914      -0.53463262       0.00000000      -0.00019832 
H       7.43891565       8.83042056       8.25856100      -0.36232937       0.54463421       0.00000000      -0.00013405 
H       8.77349765       8.10862956       8.25856100       0.64435676       0.01977950       0.00000000      -0.00015884 
O      10.72379965       8.17938656       8.25856100      -0.29634509       0.48021702       0.00000000      -0.00000000 
H      11.05357265       7.69417656       7.50000000       0.18314842      -0.25499918      -0.55667340      -0.00000000 
H      11.05357265       7.69417656       9.01712200       0.18314842      -0.25499918       0.55667340       0.00007621 
10
Lattice="20.958976 0.0 0.0 0.0 17.33318 0.0 0.0 0.0 15.0" Properties=species:S:1:pos:R:3:forces:R:3 Name=Formic_acid_dimer energy=-2900.9337796636732 stress="-0.0006124111293380343 1.2854206612792324e-05 -0.0 1.2854206612792324e-05 -0.0006757640047867964 -0.0 -0.0 -0.0 -1.8363152303989035e-06" pbc="T T T"
C       8.59059200       8.48689800       7.50000000      -0.97980988      -0.03031099      -0.00000000 
O       8.98620800       9.74027900       7.50000000      -0.27638022       0.65064594       0.00000000 
O       9.30905300       7.50000000       7.50000000       0.44712384      -0.78177914      -0.00000000 
H       7.50000000       8.40776100       7.50000000      -0.09721367      -0.01061686      -0.00000000 
H       9.98065500       9.77378500       7.50000000       0.51879591       0.23103496      -0.00000000 
C      12.36838400       8.84628200       7.50000000       0.97980988       0.03031099       0.00000000 
O      11.97276800       7.59290100       7.50000000       0.27638022      -0.65064594       0.00000000 
O      11.64992300       9.83318000       7.50000000      -0.44712384       0.78177914      -0.00000000 
H      13.45897600       8.92541900       7.50000000       0.09721367       0.01061686      -0.00000000 
H      10.97832100       7.55939500       7.50000000      -0.51879591      -0.23103496      -0.00000000 
12
Lattice="21.234122 0.0 0.0 0.0 18.954072 0.0 0.0 0.0 15.0" Properties=species:S:1:pos:R:3:forces:R:3 Name=Formamide_dimer energy=-2564.9749227642383 stress="-0.000390216986459767 -0.00010742444097833584 -0.0 -0.00010742444097833584 -0.0005499764115044715 -0.0 -0.0 -0.0 -6.427103306396162e-06" pbc="T T T"
C       8.59841200       9.52991900       7.50000000      -0.69979335      -0.36711574       0.00000000 
O       9.16486100      10.62067000       7.50000000       0.38609536       0.82121909       0.00000000 
N       9.20929100       8.33455200       7.50000000       0.00674066      -0.11923979       0.00000000 
H       8.65246500       7.50000000       7.50000000      -0.09975675      -0.25688843       0.00000000 
H      10.22981700       8.26925400       7.50000000       0.21193706      -0.10519926       0.00000000 
H       7.50000000       9.46333500       7.50000000      -0.11342936       0.00265569       0.00000000 
C      12.63571000       9.42415300       7.50000000       0.69979335       0.36711574      -0.00000000 
O      12.06926100       8.33340200       7.50000000      -0.38609536      -0.82121909       0.00000000 
N      12.02483100      10.61952000       7.50000000      -0.00674066       0.11923979       0.00000000 
H      12.58165700      11.45407200       7.50000000       0.09975675       0.25688843       0.00000000 
H      11.00430500      10.68481800       7.50000000      -0.21193706       0.10519926       0.00000000 
H      13.73412200       9.49073700       7.50000000       0.11342936      -0.00265569       0.00000000 
24
Lattice="20.338124 0.0 0.0 0.0 25.972813199999997 0.0 0.0 0.0 15.0" Properties=species:S:1:pos:R:3:forces:R:3 Name=Uracil_dimer_h-bonded energy=-6097.111798635761 stress="-0.000999873642952203 -8.5388658213549e-05 -0.0 -8.5388658213549e-05 -0.0012633848785144456 -0.0 -0.0 -0.0 -5.5089456911967096e-06" pbc="T T T"
O       8.70273040      13.99857590       7.50000000      -0.79671622      -0.80075260       0.00000000 
C       9.54091560      14.90067440       7.50000000       0.22921822       0.41180357       0.00000000 
N      10.88957130      14.67467540       7.50000000       0.32810644      -0.35777260       0.00000000 
C      11.80579100      15.69168300       7.50000000       0.55726167       0.10727002       0.00000000 
C      11.44596560      16.99258290       7.50000000       0.25881264       0.22518390       0.00000000 
C      10.04046150      17.34856150       7.50000000       0.58977301      -0.15478838       0.00000000 
N       9.19133900      16.22604990       7.50000000      -0.68037175       0.01868626       0.00000000 
O       9.57183910      18.47281320       7.50000000      -0.41580780       0.95911815      -0.00000000 
H      12.17941240      17.78027080       7.50000000       0.02640652       0.07404057       0.00000000 
H      11.19231350      13.69258860       7.50000000       0.10167453      -0.13785972      -0.00000000 
H       8.19903520      16.41879160       7.50000000      -0.20452791       0.05555588      -0.00000000 
H      12.83812400      15.37474830       7.50000000       0.05712194      -0.03882829       0.00000000 
O      11.63539360      11.97423730       7.50000000       0.79671622       0.80075260       0.00000000 
C      10.79720840      11.07213880       7.50000000      -0.22921822      -0.41180357       0.00000000 
N       9.44855270      11.29813780       7.50000000      -0.32810644       0.35777260       0.00000000 
C       8.53233300      10.28113020       7.50000000      -0.55726167      -0.10727002      -0.00000000 
C       8.89215840       8.98023030       7.50000000      -0.25881264      -0.22518390       0.00000000 
C      10.29766250       8.62425170       7.50000000      -0.58977301       0.15478838       0.00000000 
N      11.14678500       9.74676330       7.50000000       0.68037175      -0.01868626       0.00000000 
O      10.76628490       7.50000000       7.50000000       0.41580780      -0.95911815       0.00000000 
H       8.15871160       8.19254240       7.50000000      -0.02640652      -0.07404057       0.00000000 
H       9.14581050      12.28022460       7.50000000      -0.10167453       0.13785972      -0.00000000 
H      12.13908880       9.55402160       7.50000000       0.20452791      -0.05555588      -0.00000000 
H       7.50000000      10.59806490       7.50000000      -0.05712194       0.03882829       0.00000000 
25
Lattice="25.5677471 0.0 0.0 0.0 20.294033300000002 0.0 0.0 0.0 15.8344466" Properties=species:S:1:pos:R:3:forces:R:3 Name=2-pyridoxine_2-aminopyridine_complex energy=-4533.770276183369 stress="-0.0006390377001788184 3.1217358916781356e-05 -9.181576151994517e-07 3.1217358916781356e-05 -0.0007593163477699466 -1.1936048997592873e-05 -9.181576151994517e-07 -1.1936048997592873e-05 -3.305367414718026e-05" pbc="T T T"
O      11.38624693       8.26118020       7.54991565       0.56380436      -0.88375963      -0.14740623 
N      11.31961323      10.51119980       7.93645185       0.61293634       0.25158322       0.05033346 
C       8.59812843      10.51668390       7.95331775      -0.30176652      -0.05254923      -0.08716631 
C       9.30060843      11.72532810       8.16729695      -0.16089964       0.29653741       0.02196931 
C      10.66591803      11.67772180       8.15106005      -0.05879830       0.35765408       0.08581597 
C      10.70648493       9.28326780       7.72728035      -0.69526872       0.26533065      -0.02158158 
C       9.26826503       9.34182200       7.74146325      -0.27185739      -0.31789582      -0.03959859 
H       7.51606373      10.51775980       7.95836365      -0.07067603       0.02196725       0.01542765 
H       8.79183483      12.65977300       8.33866315      -0.05664089       0.04784154       0.01820778 
H      11.29094863      12.54542660       8.30572355       0.03947852       0.04847738       0.01901382 
H       8.74374563       8.41217180       7.57929485      -0.02715702      -0.06450589      -0.00038695 
H      12.35734163      10.50822970       7.92457555       0.13256119       0.04072679       0.01403025 
N      14.21662983      10.51098730       7.90127095      -0.33329005       0.31627320      -0.02997778 
C      14.89928823       9.36667200       8.08533165       0.13689556      -0.18092030       0.09553885 
C      16.30762683       9.34540740       8.07172445       0.34402723      -0.22138587      -0.04998019 
C      17.00245793      10.52059530       7.86462885       0.17791905      -0.11283543       0.06297891 
C      16.29383903      11.70851840       7.67224545       0.11769559       0.26116777      -0.00689081 
C      14.91188203      11.64234940       7.69968435      -0.03861566       0.42514116      -0.10107958 
H      16.82978883       8.41088140       8.22491005       0.04463229      -0.07162888       0.02033460 
H      18.08381083      10.51361790       7.85088685       0.06707263       0.00687770       0.00789097 
H      16.79496053      12.64944830       7.50421655       0.04632768       0.05675376       0.00151644 
H      14.31785603      12.53640070       7.55016525      -0.03494875       0.07711973      -0.00469329 
N      14.17218053       8.23871320       8.33703665      -0.08854596      -0.21320744      -0.00309561 
H      14.65333963       7.36573970       8.21126025       0.07192661      -0.26809124       0.05858464 
H      13.19277493       8.23902280       8.04730775      -0.21681239      -0.08667163       0.02021427 
30
Lattice="26.9766562 0.0 0.0 0.0 16.7488751 0.0 0.0 0.0 20.4269438" Properties=species:S:1:pos:R:3:forces:R:3 Name=Adenine-thymine_Watson-Crick_complex energy=-6688.325349610164 stress="-0.0010880167740113503 -1.8363152303989035e-06 -6.794366352475943e-05 -1.8363152303989035e-06 -2.754472845598355e-05 -0.0 -6.794366352475943e-05 -0.0 -0.0011008709806241425" pbc="T T T"
N      14.42332792       8.34645751       9.83458082      -0.41289423      -0.00631720      -0.36856584 
C      15.16227622       8.33866101      10.95590402       0.21230344      -0.08471065       0.22697313 
C      16.56310792       8.36498961      10.81292862      -0.46379693      -0.05692859      -0.06149436 
C      17.05292332       8.39398221       9.50748522      -0.09679792       0.05937937      -0.09760473 
N      16.34146342       8.40024071       8.37251282       0.19784690       0.00256570      -0.24990634 
C      15.03738842       8.37569451       8.63267152      -0.65209707      -0.00353295      -0.47119271 
N      17.57689482       8.36899471      11.74245102       0.46852724      -0.00051422       0.23003634 
C      18.67130452       8.39983471      11.00069002       0.61344927       0.03707454       0.93245658 
N      18.41779952       8.41567801       9.65674502       0.33205926       0.00969614      -0.55948182 
N      14.55993012       8.29790101      12.15261142      -0.11955398      -0.00207102       0.30290603 
H      14.36775592       8.37946361       7.78190152      -0.05229315      -0.00437499      -0.06225129 
H      19.67657152       8.41199181      11.38735482       0.04042288      -0.00481902       0.01007615 
H      19.09184922       8.43931311       8.90979132       0.12561279       0.00057387      -0.13537295 
H      13.54700392       8.33206111      12.21739052      -0.21710781      -0.00901275       0.11042425 
H      15.13269202       8.33969811      12.97538832       0.05951641      -0.00798533       0.24603606 
N       9.56713952       8.37347301       8.69710652      -0.42150640      -0.00290586      -0.38918660 
C       8.87462912       8.39134271       9.87982042      -0.43809284       0.03325722       0.31210827 
C       9.49657372       8.39637241      11.07980622      -0.07989497       0.07562900      -0.13168085 
C      10.95217572       8.38190271      11.09014482      -0.58565308       0.03068586      -0.30705785 
N      11.56266402       8.36337831       9.84957762       0.54065800      -0.01119073      -0.10631794 
C      10.94872272       8.35949021       8.61723672       0.02592032      -0.05298555       0.35605999 
C       8.77769932       8.41577491      12.38733612      -0.09114998       0.03886402       0.19287773 
O      11.62083942       8.38564691      12.12555572       0.62643129      -0.00115571       0.91569376 
O      11.54663412       8.34524981       7.55609412       0.52043936      -0.01614987      -0.96214640 
H       9.08659522       8.37082981       7.81298002      -0.12982374      -0.00411042      -0.17801470 
H      12.60448692       8.35282081       9.83504552       0.15243274      -0.00526382       0.00344579 
H       7.79739042       8.40137231       9.79075412      -0.05716282      -0.00584360      -0.03531205 
H       9.04438422       7.54418031      12.98303792       0.00498871      -0.09442531       0.12317358 
H       9.06160682       9.29305541      12.96649802       0.00818356       0.08988140       0.12262259 
H       7.69991532       8.42499061      12.23820042      -0.11096676      -0.00331030       0.03069640 
10
Lattice="16.777102 0.0 0.0 0.0 17.052678 0.0 0.0 0.0 20.896568000000002" Properties=species:S:1:pos:R:3:forces:R:3 Name=Methane_dimer energy=-653.003028355945 stress="-4.590788075997259e-06 -0.0 -0.0 -0.0 -1.8363152303989035e-06 -0.0 -0.0 -0.0 3.672630460797807e-06" pbc="T T T"
C       8.38855100       8.52619900      12.30744500       0.00000000       0.01906190      -0.02913574 
H       7.50000000       9.03939900      11.94296900      -0.02388889       0.01223768      -0.00673500 
H       9.27710200       9.03939900      11.94296900       0.02388889       0.01223768      -0.00673500 
H       8.38855100       7.50000000      11.94315200       0.00000000      -0.02441802      -0.00731376 
H       8.38855100       8.52642800      13.39656800       0.00000000      -0.00038052       0.01047339 
C       8.38855100       8.52647900       8.58912300       0.00000000      -0.01906190       0.02913574 
H       8.38855100       8.52625000       7.50000000       0.00000000       0.00038052      -0.01047339 
H       7.50000000       8.01327900       8.95359900      -0.02388889      -0.01223768       0.00673500 
H       9.27710200       8.01327900       8.95359900       0.02388889      -0.01223768       0.00673500 
H       8.38855100       9.55267800       8.95341600       0.00000000       0.02441802       0.00731376 
12
Lattice="16.744844 0.0 0.0 0.0 16.744844 0.0 0.0 0.0 20.566616" Properties=species:S:1:pos:R:3:forces:R:3 Name=Ethene_dimer energy=-1168.8051008731018 stress="9.181576151994517e-06 -0.0 -0.0 -0.0 9.181576151994517e-06 -0.0 -0.0 -0.0 -8.263418536795066e-06" pbc="T T T"
C       7.90049700       7.90049700       8.42419700       0.09474901       0.09474901      -0.06286784 
C       8.84434700       8.84434700       8.42419700      -0.09474901      -0.09474901      -0.06286784 
H       7.50000000       7.50000000       9.34718300      -0.03665596      -0.03665596      -0.02780957 
H       9.24484400       9.24484400       9.34718300       0.03665596       0.03665596      -0.02780957 
H       7.50195800       7.50195800       7.50000000      -0.03714524      -0.03714524       0.00643830 
H       9.24288600       9.24288600       7.50000000       0.03714524       0.03714524       0.00643830 
C       7.90049700       8.84434700      12.14241900       0.09474901      -0.09474901       0.06286784 
C       8.84434700       7.90049700      12.14241900      -0.09474901       0.09474901       0.06286784 
H       7.50000000       9.24484400      11.21943300      -0.03665596       0.03665596       0.02780957 
H       9.24484400       7.50000000      11.21943300       0.03665596      -0.03665596       0.02780957 
H       7.50195800       9.24288600      13.06661600      -0.03714524       0.03714524      -0.00643830 
H       9.24288600       7.50195800      13.06661600       0.03714524      -0.03714524      -0.00643830 
17
Lattice="19.9485351 0.0 0.0 0.0 19.350013699999998 0.0 0.0 0.0 19.0796789" Properties=species:S:1:pos:R:3:forces:R:3 Name=Benzene-methane_complex energy=-1980.2650172979013 stress="-0.0002203578276478684 -9.181576151994517e-07 0.0 -9.181576151994517e-07 -0.00021943967003266895 0.0 0.0 0.0 -4.5907880759972583e-05" pbc="T T T"
C      11.36748535       9.71129816       8.90655527       0.20344548       0.04515474      -0.01980084 
C      10.70230395       8.48660536       8.90653387       0.07384157      -0.22071095      -0.02013328 
C       9.30908785       8.45029916       8.90655527      -0.12901410      -0.22799206      -0.02083699 
C       8.58106345       9.63870966       8.90653387      -0.20337143      -0.04584226      -0.01931773 
C       9.24622945      10.86342316       8.90655527      -0.07302807       0.22198236      -0.02001732 
C      10.63943525      10.89970556       8.90653387       0.12803991       0.22871634      -0.02095269 
H      12.44854125       9.73945526       8.90811157       0.06658180       0.00201292       0.00391091 
H      11.26722635       7.56446596       8.90809547       0.03848967      -0.06130795       0.00386540 
H       8.79294465       7.49999876       8.90811157      -0.03391491      -0.06102205       0.00386437 
H       7.50000615       9.61054216       8.90809547      -0.06636352      -0.00156426       0.00400398 
H       8.68131675      11.78556646       8.90811157      -0.03843671       0.06182449       0.00379186 
H      11.15557015      11.85001246       8.90809547       0.03424632       0.06167382       0.00395976 
C       9.97426755       9.67500686      12.62245507      -0.00194915      -0.00442153      -0.01934035 
H      10.56114515      10.51318106      12.98621277       0.07493763       0.10957347       0.05005012 
H       8.95494865       9.76417066      12.98621277      -0.13080693       0.01235261       0.05120429 
H       9.97426755       9.67500686      11.53650527       0.00002957       0.00021906      -0.03463816 
H      10.40670885       8.74766886      12.98621257       0.05727338      -0.12064824       0.05038668 
24
Lattice="21.6060844 0.0 0.0 0.0 19.5838098 0.0 0.0 0.0 19.2875954" Properties=species:S:1:pos:R:3:forces:R:3 Name=Benzene_dimer_parallel_displaced energy=-3307.521198106029 stress="-0.00019281309919188483 0.00011109707143913366 -0.0 0.00011109707143913366 -0.0002469843984886525 -0.0 -0.0 -0.0 -0.00033237305670220154" pbc="T T T"
C       9.75521700       8.37023130       9.64379770       0.01707624      -0.22960388       0.00000000 
C       9.34853880       8.93645900      10.85000250       0.03254142      -0.08335851       0.18947025 
C       9.34853880       8.93645900       8.43759290       0.03254142      -0.08335851      -0.18947025 
C       8.53624520      10.06906590      10.85075160      -0.14469063       0.07863462       0.23171039 
C       8.13156410      10.63692600       9.64379770      -0.10767420       0.15513934       0.00000000 
C       8.53624520      10.06906590       8.43684380      -0.14469063       0.07863462      -0.23171039 
H       9.66918880       8.49984560       7.50148270       0.02327723      -0.02752520      -0.06682863 
H       8.22054790      10.50821150       7.50000000      -0.01850140       0.03139471      -0.06404541 
H       7.50000000      11.51517490       9.64379770      -0.03682951       0.05884458      -0.00000000 
H       8.22054790      10.50821150      11.78759540      -0.01850140       0.03139471       0.06404541 
H       9.66918880       8.49984560      11.78611270       0.02327723      -0.02752520       0.06682863 
H      10.39701690       7.50000000       9.64379770       0.04169147      -0.05864275       0.00000000 
C      11.85086740      11.21357850       9.64379770      -0.01707624       0.22960388       0.00000000 
C      12.25754560      10.64735080       8.43759290      -0.03254142       0.08335851      -0.18947025 
C      12.25754560      10.64735080      10.85000250      -0.03254142       0.08335851       0.18947025 
C      13.06983920       9.51474390       8.43684380       0.14469063      -0.07863462      -0.23171039 
C      13.47452030       8.94688380       9.64379770       0.10767420      -0.15513934       0.00000000 
C      13.06983920       9.51474390      10.85075160       0.14469063      -0.07863462       0.23171039 
H      11.20906750      12.08380980       9.64379770      -0.04169147       0.05864275       0.00000000 
H      11.93689560      11.08396420      11.78611270      -0.02327723       0.02752520       0.06682863 
H      13.38553650       9.07559830      11.78759540       0.01850140      -0.03139471       0.06404541 
H      14.10608440       8.06863490       9.64379770       0.03682951      -0.05884458      -0.00000000 
H      13.38553650       9.07559830       7.50000000       0.01850140      -0.03139471      -0.06404541 
H      11.93689560      11.08396420       7.50148270      -0.02327723       0.02752520      -0.06682863 
20
Lattice="18.6122367 0.0 0.0 0.0 20.1657118 0.0 0.0 0.0 19.1247972" Properties=species:S:1:pos:R:3:forces:R:3 Name=Pyrazine_dimer energy=-3778.7976715104096 stress="-0.0003764446222317752 0.0001579231098143057 -0.0 0.0001579231098143057 -0.0002341301918758602 -0.0 -0.0 -0.0 -0.0004838690632101111" pbc="T T T"
C       8.05892895       8.91103471       8.86625980      -0.26351776       0.08717891      -0.15356556 
C       8.05892895       8.91103471      10.25853740      -0.26351776       0.08717891       0.15356556 
N       9.04716735       8.35927881      10.97687820      -0.03283864      -0.03061001       0.15905050 
C      10.03765105       7.81763381      10.25912740       0.34254370      -0.23332170       0.17406728 
C      10.03765105       7.81763381       8.86566980       0.34254370      -0.23332170      -0.17406728 
N       9.04716735       8.35927881       8.14791900      -0.03283864      -0.03061001      -0.15905050 
H       7.24268205       9.36053601       8.31511890      -0.10449889       0.05234843      -0.03127824 
H       7.24268205       9.36053601      10.80967830      -0.10449889       0.05234843       0.03127824 
H      10.85491875       7.37002771      10.80995900       0.05871937      -0.03812200       0.03363826 
H      10.85491875       7.37002771       8.31483820       0.05871937      -0.03812200      -0.03363826 
C       8.96811525      12.16291671      10.69244380      -0.13381281       0.10880600       0.33262593 
C      10.16014375      11.44220301      10.69302940       0.21090682       0.03680020       0.31449888 
N      10.77629705      11.07361571       9.56239860       0.13011607      -0.04257053       0.00000000 
C      10.16014375      11.44220301       8.43176780       0.21090682       0.03680020      -0.31449888 
C       8.96811525      12.16291671       8.43235340      -0.13381281       0.10880600      -0.33262593 
N       8.35381245      12.53573951       9.56239860      -0.15861572       0.09756925       0.00000000 
H       8.49574255      12.44715921      11.62426290      -0.05548646       0.01217803       0.09351848 
H      10.62697665      11.14991691      11.62479720      -0.00776550      -0.02275709       0.09127802 
H      10.62697665      11.14991691       7.50000000      -0.00776550      -0.02275709      -0.09127802 
H       8.49574255      12.44715921       7.50053430      -0.05548646       0.01217803      -0.09351848 
24
Lattice="19.595041600000002 0.0 0.0 0.0 20.2221728 0.0 0.0 0.0 19.7418109" Properties=species:S:1:pos:R:3:forces:R:3 Name=Uracil_dimer_stack energy=-6096.7249371124835 stress="-0.00018546783827028926 0.00025249334417984924 -0.0 0.00025249334417984924 -0.0010411907356361783 -0.0 -0.0 -0.0 -0.001056799415094569" pbc="T T T"
N      11.80887950       8.89787910       9.77283934       0.17288072      -0.50902495      -0.13483045 
C      11.82322840       9.41390670       8.50650374       0.14254787      -0.14265869      -0.58189875 
H      12.09504160       8.72002720       7.72526074       0.00567262      -0.05330334      -0.04094585 
C      11.51204340      10.70305150       8.25841744       0.01933135       0.12749329      -0.18730512 
H      11.52480810      11.10193300       7.25890164      -0.01219783       0.05430684      -0.06864126 
C      11.10648130      11.56862040       9.35031764       0.34800318      -0.53392891      -0.45995724 
O      10.71811340      12.72217280       9.24486094      -0.38878602       1.01805118      -0.08726581 
N      11.17440930      10.95083180      10.60554224      -0.09178658       0.33836412       0.57841748 
H      10.84932480      11.49730930      11.39427764      -0.04023031       0.12511811       0.15550906 
C      11.44351170       9.62587510      10.88963334       0.12017773       0.13885551      -0.10763255 
O      11.35862980       9.13928030      12.00071254      -0.08457155      -0.44250588       0.93379073 
H      11.92698430       7.90958180       9.92772004       0.03707042      -0.22717753       0.00075976 
N       7.78616210      11.32429370       9.77283934      -0.17288072       0.50902495      -0.13483045 
C       7.77181320      10.80826610       8.50650374      -0.14254787       0.14265869      -0.58189875 
H       7.50000000      11.50214560       7.72526074      -0.00567262       0.05330334      -0.04094585 
C       8.08299820       9.51912130       8.25841744      -0.01933135      -0.12749329      -0.18730512 
H       8.07023350       9.12023980       7.25890164       0.01219783      -0.05430684      -0.06864126 
C       8.48856030       8.65355240       9.35031764      -0.34800318       0.53392891      -0.45995724 
O       8.87692820       7.50000000       9.24486094       0.38878602      -1.01805118      -0.08726581 
N       8.42063230       9.27134100      10.60554224       0.09178658      -0.33836412       0.57841748 
H       8.74571680       8.72486350      11.39427764       0.04023031      -0.12511811       0.15550906 
C       8.15152990      10.59629770      10.88963334      -0.12017773      -0.13885551      -0.10763255 
O       8.23641180      11.08289250      12.00071254       0.08457155       0.44250588       0.93379073 
H       7.66805730      12.31259100       9.92772004      -0.03707042       0.22717753       0.00075976 
28
Lattice="21.5418768 0.0 0.0 0.0 19.9120474 0.0 0.0 0.0 20.902879" Properties=species:S:1:pos:R:3:forces:R:3 Name=Indole-benzene_complex_stack energy=-4235.461079932117 stress="-0.0005600761452716655 -3.2135516531980806e-05 2.3872097995185745e-05 -3.2135516531980806e-05 -0.0003424727904693955 -0.00011752417474552982 2.3872097995185745e-05 -0.00011752417474552982 -0.00021943967003266895" pbc="T T T"
C      10.74986061      11.48788804       9.08750376      -0.04178248       0.16753797       0.06748657 
C       9.49625541      10.93012954       8.84402856      -0.19603839       0.06910842       0.01714592 
C       9.39262931       9.73032844       8.14302286      -0.23589023      -0.06061247      -0.03905609 
C      10.54199221       9.08962124       7.68264386      -0.03021149      -0.14986009      -0.10925903 
C      11.79572301       9.65250944       7.92019726       0.26020618      -0.03161068      -0.06015919 
C      11.89993441      10.85270524       8.62145526       0.19638086       0.16184709       0.01305709 
H      10.83100881      12.41258924       9.64204256       0.01850294       0.05616652       0.02073826 
H       8.60583461      11.42147864       9.21087066      -0.04300633       0.02811398       0.01275627 
H       8.41996131       9.29441434       7.95876846      -0.05563713      -0.03431266      -0.02205364 
H      10.46059291       8.16045034       7.13416786       0.00679954      -0.06095031      -0.05087082 
H      12.68751951       9.16194204       7.55204406       0.07610902      -0.03775151      -0.03772374 
H      12.87096951      11.28870224       8.81139626       0.07770234       0.02416631      -0.00236259 
H       7.82917011      10.85140994      12.67534366      -0.04610168       0.02376214      -0.00321465 
C       8.74886741      10.38188054      12.35279316      -0.27100250       0.03059998       0.10301253 
C       9.95599301      11.03007184      12.55813646      -0.00185325       0.10134157       0.14122915 
H       9.98578191      12.00040774      13.03704686       0.02104911       0.05845403       0.00528747 
C      11.14136341      10.40531174      12.13618406      -0.11991317       0.14433248       0.13791089 
C      12.52179671      10.75992004      12.17083866       0.36227383       0.17854049      -0.04199100 
H      12.95794561      11.65585464      12.57902856       0.01285809       0.04568927      -0.00175426 
C      13.21607071       9.72495234      11.58676956       0.55123578       0.44389865       0.12014585 