4
Lattice="19.317242 0.0 0.0 0.0 16.316386 0.0 0.0 0.0 16.61913" Properties=species:S:1:pos:R:3:forces:R:3 Name=Ammonia_2 energy=-444.5332407175715 stress="-4.5907880759972583e-05 -1.2854206612792324e-05 -0.0 -1.2854206612792324e-05 -1.2854206612792324e-05 -0.0 -0.0 -0.0 -7.345260921595614e-05" pbc="T T T"
N      11.23733900       8.20480400       8.30956500      -0.07871150       0.11032707       0.00000000 
H      11.81724200       8.02179700       7.50000000       0.11902408      -0.00355532      -0.24673334 
H      10.50809200       7.50000000       8.30956500      -0.15933692      -0.10321642       0.00000000 
H      11.81724200       8.02179700       9.11913000       0.11902408      -0.00355532       0.24673334 
3
Lattice="18.614657 0.0 0.0 0.0 16.136244 0.0 0.0 0.0 16.517122" Properties=species:S:1:pos:R:3:forces:R:3 Name=Water_2 energy=-612.5720365155823 stress="-2.1117625149587388e-05 3.305367414718026e-05 -0.0 3.305367414718026e-05 -4.6826038375172033e-05 -0.0 -0.0 -0.0 -0.00014782337604711171" pbc="T T T"
O      10.72379965       8.17938656       8.25856100      -0.34186930       0.50401901       0.00000000 
H      11.05357265       7.69417656       7.50000000       0.17093465      -0.25200950      -0.48963523 
H      11.05357265       7.69417656       9.01712200       0.17093465      -0.25200950       0.48963523 
5
Lattice="20.958976 0.0 0.0 0.0 17.33318 0.0 0.0 0.0 15.0" Properties=species:S:1:pos:R:3:forces:R:3 Name=Formic_acid_2 energy=-1450.0965045974035 stress="3.764446222317752e-05 -0.0001101789138239342 -0.0 -0.0001101789138239342 -0.00034706357854539274 -0.0 -0.0 -0.0 1.8363152303989035e-06" pbc="T T T"
C      12.36838400       8.84628200       7.50000000       0.49598894       2.26410702       0.00000000 
O      11.97276800       7.59290100       7.50000000      -1.13509988      -1.85905388       0.00000000 
O      11.64992300       9.83318000       7.50000000      -0.08173640      -0.27436113       0.00000000 
H      13.45897600       8.92541900       7.50000000       0.13288130      -0.21683501       0.00000000 
H      10.97832100       7.55939500       7.50000000       0.58796604       0.08614327       0.00000000 
6
Lattice="21.234122 0.0 0.0 0.0 18.954072 0.0 0.0 0.0 15.0" Properties=species:S:1:pos:R:3:forces:R:3:stress:R:1 Name=Formamide_2 energy=-1282.1706304641011 pbc="T T T"
C      12.63571000       9.42415300       7.50000000       0.38395672      -1.24181352       0.00000000       0.00001836 
O      12.06926100       8.33340200       7.50000000      -0.14552855       0.01606708       0.00000000      -0.00023872 
N      12.02483100      10.61952000       7.50000000      -0.82793481       0.72662846       0.00000000       0.00000275 
H      12.58165700      11.45407200       7.50000000      -0.02423213       0.35094967       0.00000000      -0.00000000 
H      11.00430500      10.68481800       7.50000000       0.47755053      -0.02330551       0.00000000      -0.00000000 
H      13.73412200       9.49073700       7.50000000       0.13618825       0.17147355       0.00000000       0.00003948 
12
Lattice="20.338124 0.0 0.0 0.0 25.972813199999997 0.0 0.0 0.0 15.0" Properties=species:S:1:pos:R:3:forces:R:3 Name=Uracil_2_h-bonded energy=-3048.145975194378 stress="-0.0005031503731292995 -4.4071565529573677e-05 -0.0 -4.4071565529573677e-05 -0.0004407156552957368 -0.0 -0.0 -0.0 5.5089456911967096e-06" pbc="T T T"
O      11.63539360      11.97423730       7.50000000      -0.02847111       0.27756653       0.00000000 
C      10.79720840      11.07213880       7.50000000       1.36231675       0.73618628       0.00000000 
N       9.44855270      11.29813780       7.50000000      -1.02291339       1.11108038       0.00000000 
C       8.53233300      10.28113020       7.50000000      -0.79183190      -0.18763859       0.00000000 
C       8.89215840       8.98023030       7.50000000      -0.33360578      -0.13031405       0.00000000 
C      10.29766250       8.62425170       7.50000000      -0.30849433       0.27633060       0.00000000 
N      11.14678500       9.74676330       7.50000000       0.38257398      -0.45252804       0.00000000 
O      10.76628490       7.50000000       7.50000000       0.34550690      -0.97484688       0.00000000 
H       8.15871160       8.19254240       7.50000000      -0.03162020      -0.04521825       0.00000000 
H       9.14581050      12.28022460       7.50000000       0.29026778      -0.62330225       0.00000000 
H      12.13908880       9.55402160       7.50000000       0.19811224       0.01384410       0.00000000 
H       7.50000000      10.59806490       7.50000000      -0.06184094      -0.00116008       0.00000000 
13
Lattice="25.5677471 0.0 0.0 0.0 20.294033300000002 0.0 0.0 0.0 15.8344466" Properties=species:S:1:pos:R:3:forces:R:3 Name=2-aminopyridine energy=-2182.4937643848302 stress="-0.00021209440911107333 -1.4690521843191228e-05 2.2953940379986292e-05 -1.4690521843191228e-05 -0.0003176825348590103 5.32531416815682e-05 2.2953940379986292e-05 5.32531416815682e-05 -1.3772364227991774e-05" pbc="T T T"
N      14.21662983      10.51098730       7.90127095      -0.41327475       0.02251412      -0.05673705 
C      14.89928823       9.36667200       8.08533165       0.36790609       0.92112522      -0.13305356 
C      16.30762683       9.34540740       8.07172445       0.12540221      -0.48828206       0.00897598 
C      17.00245793      10.52059530       7.86462885       0.19272064       0.08911392       0.02990039 
C      16.29383903      11.70851840       7.67224545       0.27215410       0.13715061       0.01194175 
C      14.91188203      11.64234940       7.69968435      -0.26630638       0.24092574      -0.06909454 
H      16.82978883       8.41088140       8.22491005       0.09025163      -0.08408253       0.01818670 
H      18.08381083      10.51361790       7.85088685       0.06000955      -0.00421301       0.00393790 
H      16.79496053      12.64944830       7.50421655       0.06172087       0.06215642      -0.00484627 
H      14.31785603      12.53640070       7.55016525      -0.05516328       0.04544836       0.00240630 
N      14.17218053       8.23871320       8.33703665      -0.83005366      -0.74970154       0.02981246 
H      14.65333963       7.36573970       8.21126025      -0.01158976      -0.29587304       0.00089192 
H      13.19277493       8.23902280       8.04730775       0.40622247       0.10371856       0.15767830 
15
Lattice="26.9766562 0.0 0.0 0.0 16.7488751 0.0 0.0 0.0 20.4269438" Properties=species:S:1:pos:R:3:forces:R:3 Name=thymine_Watson-Crick_complex energy=-3340.8336432187825 stress="-0.00028095623025103223 3.672630460797807e-06 8.35523429831501e-05 3.672630460797807e-06 -2.1117625149587388e-05 -6.427103306396162e-06 8.35523429831501e-05 -6.427103306396162e-06 -0.0006059840260316382" pbc="T T T"
N       9.56713952       8.37347301       8.69710652      -0.24729899      -0.00967892      -0.36760142 
C       8.87462912       8.39134271       9.87982042      -0.51906613       0.03188836       0.46880261 
C       9.49657372       8.39637241      11.07980622      -0.18195131       0.07048602      -0.33586295 
C      10.95217572       8.38190271      11.09014482      -0.26880729       0.03388894       0.98229588 
N      11.56266402       8.36337831       9.84957762       1.76789542      -0.02937871      -0.34245809 
C      10.94872272       8.35949021       8.61723672      -0.05025915      -0.05760839      -0.18337365 
C       8.77769932       8.41577491      12.38733612      -0.07568068       0.03447978       0.20831206 
O      11.62083942       8.38564691      12.12555572       0.38317973      -0.01199034       0.28694385 
O      11.54663412       8.34524981       7.55609412       0.49738119      -0.02231898      -0.80874461 
H       9.08659522       8.37082981       7.81298002      -0.10534761      -0.00940895      -0.17707445 
H      12.60448692       8.35282081       9.83504552      -1.02697882       0.00367539       0.04948397 
H       7.79739042       8.40137231       9.79075412      -0.06382815      -0.01088862      -0.04085714 
H       9.04438422       7.54418031      12.98303792       0.00149407      -0.09197273       0.12011140 
H       9.06160682       9.29305541      12.96649802       0.00457939       0.07733441       0.11968691 
H       7.69991532       8.42499061      12.23820042      -0.11531141      -0.00850727       0.02033537 
5
Lattice="16.777102 0.0 0.0 0.0 17.052678 0.0 0.0 0.0 20.896568000000002" Properties=species:S:1:pos:R:3:forces:R:3 Name=Methane_2 energy=-326.4855937496712 stress="-2.7544728455983548e-06 -0.0 -0.0 -0.0 -9.181576151994517e-07 -0.0 -0.0 -0.0 1.8363152303989035e-06" pbc="T T T"
C       8.38855100       8.52647900       8.58912300       0.00000000      -0.01558783       0.04784257 
H       8.38855100       8.52625000       7.50000000       0.00000000       0.00421301      -0.01662372 
H       7.50000000       8.01327900       8.95359900      -0.02292293      -0.00780253      -0.01056415 
H       9.27710200       8.01327900       8.95359900       0.02292293      -0.00780253      -0.01056415 
H       8.38855100       9.55267800       8.95341600       0.00000000       0.02697961      -0.01009055 
6
Lattice="16.744844 0.0 0.0 0.0 16.744844 0.0 0.0 0.0 20.566616" Properties=species:S:1:pos:R:3:forces:R:3:stress:R:1 Name=Ethene_2 energy=-584.3712705426266 pbc="T T T"
C       7.90049700       8.84434700      12.14241900       0.10937627      -0.10937627       0.03402598       0.00001010 
C       8.84434700       7.90049700      12.14241900      -0.10937627       0.10937627       0.03402598       0.00001010 
H       7.50000000       9.24484400      11.21943300      -0.02569586       0.02569586      -0.00477145       0.00001010 
H       9.24484400       7.50000000      11.21943300       0.02569586      -0.02569586      -0.00477145      -0.00000000 
H       7.50195800       9.24288600      13.06661600      -0.03758876       0.03758876      -0.02925453      -0.00000000 
H       9.24288600       7.50195800      13.06661600       0.03758876      -0.03758876      -0.02925453      -0.00000826 
5
Lattice="19.9485351 0.0 0.0 0.0 19.350013699999998 0.0 0.0 0.0 19.0796789" Properties=species:S:1:pos:R:3:forces:R:3 Name=methane energy=-326.4873789525097 stress="-2.1117625149587388e-05 0.0 0.0 0.0 -2.1117625149587388e-05 0.0 0.0 0.0 -1.8363152303989035e-05" pbc="T T T"
C       9.97426755       9.67500686      12.62245507      -0.00143750      -0.00305961       0.00736004 
H      10.56114515      10.51318106      12.98621277       0.06693610       0.09850950       0.03474229 
H       8.95494865       9.76417066      12.98621277      -0.11677462       0.01154142       0.03585249 
H       9.97426755       9.67500686      11.53650527       0.00004705       0.00059495      -0.11299073 
H      10.40670885       8.74766886      12.98621257       0.05122872      -0.10758627       0.03503617 
12
Lattice="21.6060844 0.0 0.0 0.0 19.5838098 0.0 0.0 0.0 19.2875954" Properties=species:S:1:pos:R:3:forces:R:3 Name=Benzene_2_parallel_displaced energy=-1653.7111519548514 stress="-5.876208737276491e-05 7.528892444635504e-05 -0.0 7.528892444635504e-05 -0.00011201522905433311 -0.0 -0.0 -0.0 -0.0001772044197334942" pbc="T T T"
C      11.85086740      11.21357850       9.64379770      -0.14741446       0.18514437       0.00000000 
C      12.25754560      10.64735080       8.43759290      -0.10203166       0.05875254      -0.25854628 
C      12.25754560      10.64735080      10.85000250      -0.10203166       0.05875254       0.25854628 
C      13.06983920       9.51474390       8.43684380       0.12304246      -0.10102918      -0.23807078 
C      13.47452030       8.94688380       9.64379770       0.11329875      -0.15140327       0.00000000 
C      13.06983920       9.51474390      10.85075160       0.12304246      -0.10102918       0.23807078 
H      11.20906750      12.08380980       9.64379770      -0.02427353       0.07873386       0.00000000 
H      11.93689560      11.08396420      11.78611270      -0.01174557       0.03145488       0.06194610 
H      13.38553650       9.07559830      11.78759540       0.00859494      -0.02144737       0.05271584 
H      14.10608440       8.06863490       9.64379770       0.02266839      -0.04793642       0.00000000 
H      13.38553650       9.07559830       7.50000000       0.00859494      -0.02144737      -0.05271584 
H      11.93689560      11.08396420       7.50148270      -0.01174557       0.03145488      -0.06194610 
10
Lattice="18.6122367 0.0 0.0 0.0 20.1657118 0.0 0.0 0.0 19.1247972" Properties=species:S:1:pos:R:3:forces:R:3 Name=Pyrazine_2 energy=-1889.3197052550092 stress="-0.0001101789138239342 6.059840260316382e-05 -0.0 6.059840260316382e-05 -4.774419599037149e-05 -0.0 -0.0 -0.0 -0.0003277822686262043" pbc="T T T"
C       8.96811525      12.16291671      10.69244380      -0.14506935       0.07638182       0.34366548 
C      10.16014375      11.44220301      10.69302940       0.17399966      -0.05313982       0.30257410 
N      10.77629705      11.07361571       9.56239860       0.11595341      -0.12313682       0.00000000 
C      10.16014375      11.44220301       8.43176780       0.17399966      -0.05313982      -0.30257410 
C       8.96811525      12.16291671       8.43235340      -0.14506935       0.07638182      -0.34366548 
N       8.35381245      12.53573951       9.56239860      -0.14281784       0.07731204       0.00000000 
H       8.49574255      12.44715921      11.62426290      -0.04519537       0.00842371       0.08226296 
H      10.62697665      11.14991691      11.62479720       0.02969727      -0.00875306       0.08905736 
H      10.62697665      11.14991691       7.50000000       0.02969727      -0.00875306      -0.08905736 
H       8.49574255      12.44715921       7.50053430      -0.04519537       0.00842371      -0.08226296 
12
Lattice="19.595041600000002 0.0 0.0 0.0 20.2221728 0.0 0.0 0.0 19.7418109" Properties=species:S:1:pos:R:3:forces:R:3 Name=Uracil_1_stack energy=-3048.1704657119712 stress="-5.14168264511693e-05 0.00011844233236072926 -5.32531416815682e-05 0.00011844233236072926 -0.0004838690632101111 -8.997944628954627e-05 -5.32531416815682e-05 -8.997944628954627e-05 -0.0005674214061932611" pbc="T T T"
N       7.78616210      11.32429370       9.77283934      -0.12720147       0.65409070      -0.10108061 
C       7.77181320      10.80826610       8.50650374      -0.06801571       0.01136350      -0.70875852 
H       7.50000000      11.50214560       7.72526074      -0.03097151       0.03450138      -0.04939321 
C       8.08299820       9.51912130       8.25841744      -0.04682107      -0.04396406      -0.24966826 
H       8.07023350       9.12023980       7.25890164       0.01188107      -0.06238576      -0.05522113 
C       8.48856030       8.65355240       9.35031764      -0.09723964       0.21773259      -0.48529161 
O       8.87692820       7.50000000       9.24486094       0.21170438      -0.84774028      -0.04998250 
N       8.42063230       9.27134100      10.60554224       0.16965476      -0.23797745       0.65843818 
H       8.74571680       8.72486350      11.39427764      -0.01339031      -0.11935447       0.06824685 
C       8.15152990      10.59629770      10.88963334       0.09979351      -0.18083623       0.04103429 
O       8.23641180      11.08289250      12.00071254       0.01694048       0.41196786       0.89566101 
H       7.66805730      12.31259100       9.92772004      -0.12633450       0.16260222       0.03601550 
16
Lattice="21.5418768 0.0 0.0 0.0 19.9120474 0.0 0.0 0.0 20.902879" Properties=species:S:1:pos:R:3:forces:R:3 Name=Indole_complex_stack energy=-2581.5995461691296 stress="-0.00044163381291093624 -3.305367414718026e-05 2.66265708407841e-05 -3.305367414718026e-05 -0.00022219414287826732 -0.00010007918005674023 2.66265708407841e-05 -0.00010007918005674023 -6.427103306396161e-05" pbc="T T T"
H       7.82917011      10.85140994      12.67534366      -0.03344182       0.02020244       0.00014681 
C       8.74886741      10.38188054      12.35279316      -0.26266904       0.03623764       0.12986668 
C       9.95599301      11.03007184      12.55813646      -0.02365389       0.11140127       0.13881849 
H       9.98578191      12.00040774      13.03704686       0.02556936       0.04703987       0.00585003 
C      11.14136341      10.40531174      12.13618406      -0.13965924       0.16964627       0.06851141 
C      12.52179671      10.75992004      12.17083866       0.40741804       0.17349778      -0.05929272 
H      12.95794561      11.65585464      12.57902856       0.01085186       0.03524443      -0.00005116 
C      13.21607071       9.72495234      11.58676956       0.60751491       0.52218488       0.15097158 
N      12.33558101       8.74224534      11.20697666       0.23273189      -0.64395284      -0.41549490 
C      11.05705621       9.12907794      11.51331346      -0.62395300      -0.05157941       0.14071185 
C       9.84246811       8.47071444      11.31213196      -0.00851318      -0.16533350      -0.08479318 
H       9.79801481       7.50054184      10.83483956       0.02015539      -0.06630824      -0.02408712 
C       8.69165001       9.11425974      11.73908256      -0.27280896      -0.02281623       0.02135584 
H       7.73193741       8.63564194      11.59827826      -0.03348450      -0.01037003      -0.00825607 
H      12.57850891       7.91933024      10.68474206       0.07998162      -0.16192011      -0.05416029 
H      14.27381421       9.60749214      11.42096126       0.01396109       0.00682576      -0.01009724 
15
Lattice="20.1979064 0.0 0.0 0.0 21.9000706 0.0 0.0 0.0 21.6578661" Properties=species:S:1:pos:R:3:forces:R:3 Name=thymine_complex_stack energy=-3340.8669302243807 stress="-0.0004278614486829445 2.8462886071183002e-05 4.4071565529573677e-05 2.8462886071183002e-05 -0.0002644293931774421 0.00027085649648383824 4.4071565529573677e-05 0.00027085649648383824 -0.0003406364752389966" pbc="T T T"
N      11.37441113      10.30212939       8.85101552       0.67676937       0.04634773      -0.11533300 
C      11.51200383       9.39634369       9.87385922       0.14354135      -0.31302538       0.36543115 
H      12.52482743       9.08295069      10.08204812       0.06112078      -0.01095933      -0.00658897 
C      10.45654813       8.92607879      10.57586842       0.28440643       0.04766568      -0.12770464 
C      10.58107973       7.93207929      11.68104802       0.19155953      -0.12914523       0.14821484 
H      10.27472103       8.37442219      12.62755402      -0.11693069      -0.03823128       0.16726980 
H       9.93878143       7.07298749      11.49287572      -0.07032584      -0.10094228       0.08640655 
H      11.61019483       7.59275199      11.78029182       0.08323509      -0.07850375       0.03561055 
C       9.13047943       9.42021749      10.23494672       0.42811362      -0.20027171      -0.00572893 
O       8.09602253       9.11033299      10.80898062      -0.79085745      -0.22658978       0.42077543 
N       9.10325893      10.31164169       9.15688392      -0.61776358       0.25131608      -0.09607210 
H       8.19754483      10.69985669       8.93034992      -0.18208964       0.04849846      -0.08230667 
C      10.16742073      10.83085249       8.45255002      -0.19447721       0.11619227      -0.07488158 
O      10.05916303      11.67272929       7.57581762      -0.05442563       0.52947370      -0.59772004 
H      12.18427943      10.67401109       8.38346822       0.15812413       0.05817455      -0.11737240 
4
Lattice="16.847242 0.0 0.0 0.0 17.464506 0.0 0.0 0.0 21.090114" Properties=species:S:1:pos:R:3:forces:R:3 Name=ethyne energy=-549.2554536864224 stress="9.181576151994517e-07 -0.0 -0.0 -0.0 9.181576151994517e-07 -0.0 -0.0 -0.0 0.00016802284358149967" pbc="T T T"
C       8.42362100       8.73225300      13.44200824       0.00000000       0.00000000      -0.49759099 
C       8.42362100       8.73225300      12.23474524       0.00000000       0.00000000       0.40380204 
H       8.42362100       8.73225300      11.16885724       0.00000000       0.00000000       0.19192951 
H       8.42362100       8.73225300      14.50543424       0.00000000       0.00000000      -0.09814029 
3
Lattice="18.9575334 0.0 0.0 0.0 19.8323075 0.0 0.0 0.0 19.2882964" Properties=species:S:1:pos:R:3:forces:R:3 Name=water energy=-612.569672526609 stress="-3.2135516531980806e-05 -2.9381043686382456e-05 -0.0 -2.9381043686382456e-05 -9.457023436554353e-05 -0.0 -0.0 -0.0 1.0099733767193969e-05" pbc="T T T"
O       6.69023422       9.64166809       9.64414820      -0.29100568       0.29559510       0.00000000 
H       6.85584982       8.69707039       9.64414820      -0.07892053      -0.66012328       0.00000000 
H       7.57725092      10.01406449       9.64414820       0.36992621       0.36452792       0.00000000 
4
Lattice="19.876579 0.0 0.0 0.0 19.2055789 0.0 0.0 0.0 19.287390000000002" Properties=species:S:1:pos:R:3:forces:R:3 Name=ammonia energy=-444.52884444639426 stress="-2.0199467534387938e-05 2.4790255610385195e-05 -0.0 2.4790255610385195e-05 -4.0398935068775876e-05 -0.0 -0.0 -0.0 -6.518919067916107e-05" pbc="T T T"
N      10.11868103       6.65368306       9.64369500      -0.08952478       0.01042171       0.00000000 
H      10.69783753       6.45685846       8.83762210       0.11656739      -0.13356547      -0.30573168 
H      10.69783753       6.45685846      10.44976790       0.11656739      -0.13356547       0.30573168 
H       9.98270473       7.65786626       9.64369500      -0.14361025       0.25670948       0.00000000 
3
Lattice="19.9485083 0.0 0.0 0.0 19.6383744 0.0 0.0 0.0 19.2885126" Properties=species:S:1:pos:R:3:forces:R:3 Name=HCN energy=-668.6855985494598 stress="-4.590788075997259e-06 -1.4690521843191228e-05 -0.0 -1.4690521843191228e-05 0.00020933993626547502 -0.0 -0.0 -0.0 -2.7544728455983548e-06" pbc="T T T"
N       9.97084233      13.35456576       9.64425630       0.09647010      -1.25353389       0.00000000 
C      10.04945043      12.18987716       9.64425630      -0.10069571       1.16336633       0.00000000 
H      10.12188363      11.12445786       9.64425630       0.00422561       0.09016782       0.00000000 
12
Lattice="19.950799 0.0 0.0 0.0 19.2871314 0.0 0.0 0.0 22.3847776" Properties=species:S:1:pos:R:3:forces:R:3 Name=Benzene_2_T-shaped energy=-1653.7120287056396 stress="-0.0001652683707359013 -0.0 -0.0 -0.0 -0.00015700495219910624 -0.0 -0.0 -0.0 9.181576151994517e-07" pbc="T T T"
C       8.58133620       9.64356570       8.73823639      -0.20381829       0.00000000      -0.00048722 
C       9.27835270      10.85080350       8.73776109      -0.17202788       0.21225074      -0.01398140 
C      10.67244630      10.85080350       8.73776109       0.17202788       0.21225074      -0.01398140 
C      11.36946280       9.64356570       8.73823639       0.20381829       0.00000000      -0.00048722 
C      10.67244630       8.43632790       8.73776109       0.17202788      -0.21225074      -0.01398140 
C       9.27835270       8.43632790       8.73776109      -0.17202788      -0.21225074      -0.01398140 
H       7.50000000       9.64356570       8.74206669      -0.06761821      -0.00000000       0.00489152 
H       8.73716740      11.78713120       8.73871239      -0.03006442       0.06123314       0.01177925 
H      11.21363160      11.78713120       8.73871239       0.03006442       0.06123314       0.01177925 
H      12.45079900       9.64356570       8.74206669       0.06761821       0.00000000       0.00489152 
H      11.21363160       7.50000020       8.73871239       0.03006442      -0.06123314       0.01177925 
H       8.73716740       7.50000020       8.73871239      -0.03006442      -0.06123314       0.01177925 
16
Lattice="23.427413 0.0 0.0 0.0 21.1053911 0.0 0.0 0.0 19.2896758" Properties=species:S:1:pos:R:3:forces:R:3 Name=benzene_T-shape_complex energy=-2581.5997848129664 stress="-0.00024790255610385197 7.253445160075668e-05 -0.0 7.253445160075668e-05 -0.00038746251361416865 -0.0 -0.0 -0.0 -3.672630460797807e-06" pbc="T T T"
H      12.52023060      10.11681060       9.64483790       0.03340249       0.01145529       0.00000000 
N      11.56946530       9.78400450       9.64483790       0.84629789       0.23883697       0.00000000 
C      11.19759390       8.46337520       9.64483790      -0.16575259      -0.88407845       0.00000000 
C       9.82383060       8.37124770       9.64483790       0.10580861      -0.35073061       0.00000000 
C       9.32047440       9.70561420       9.64483790      -0.25840230       0.02469030       0.00000000 
C      10.44964080      10.57228590       9.64483790      -0.31537383       0.63856715       0.00000000 
C      10.32410570      11.96446400       9.64483790       0.25461557       0.04005213       0.00000000 
C       9.04105600      12.48934220       9.64483790      -0.05080577       0.29020813       0.00000000 
C       7.90825500      11.65017620       9.64483790      -0.22998415       0.15665140       0.00000000 
C       8.03388940      10.27097630       9.64483790      -0.13909540      -0.14397741       0.00000000 
H      11.94470850       7.68737990       9.64483790      -0.01348389      -0.02858013       0.00000000 
H       9.25513020       7.45709200       9.64483790      -0.02294992      -0.03675495       0.00000000 
H      11.19483280      12.60664920       9.64483790       0.05816324       0.04159582       0.00000000 
H       8.90594910      13.56248310       9.64483790      -0.01257732       0.04121761       0.00000000 
H       6.92310700      12.09663440       9.64483790      -0.05155782       0.01997670       0.00000000 
H       7.15568740       9.63840560       9.64483790      -0.03830507      -0.05913049       0.00000000 
13
Lattice="24.4808362 0.0 0.0 0.0 19.866136 0.0 0.0 0.0 18.958026" Properties=species:S:1:pos:R:3:forces:R:3 Name=Phenol_2 energy=-2232.317886475408 stress="-0.00013129653897352159 8.5388658213549e-05 -5.6007614527166554e-05 8.5388658213549e-05 -0.0002056673058046772 -9.181576151994517e-05 -5.6007614527166554e-05 -9.181576151994517e-05 -0.00014323258797111448" pbc="T T T"
O      13.59353460      11.87134539       9.95132611      -0.34061692       0.28641498      -0.12832993 
C      14.27739250      10.71957729       9.62856191      -0.06132004      -0.04201388       0.01998261 
H      14.02470240      12.28182249      10.70872381       0.08368118       0.26758319       0.34396604 
C      13.83082040      10.00275899       8.52159751      -0.17372301      -0.05077954      -0.27701760 
C      14.48215450       8.82609649       8.16620181      -0.17744906      -0.10052885      -0.24975979 
C      15.57198520       8.36651269       8.90414921       0.17336717      -0.30207223      -0.02830656 
C      16.01010160       9.09338289      10.00765671       0.25162718      -0.00825196       0.10944286 
C      15.36290140      10.27142279      10.37506191       0.18383593       0.04066688       0.15238903 
H      12.98496900      10.36987129       7.95715451      -0.03964333       0.02453809      -0.00199980 
H      14.13256410       8.26810039       7.30882851      -0.00764749      -0.05328894      -0.04959812 
H      16.07344050       7.45191929       8.62234621       0.03334258      -0.06329105      -0.00718495 
H      16.85418100       8.74806289      10.58827631       0.05518847      -0.03485285       0.04481253 
H      15.70030320      10.83611059      11.23596171       0.01935732       0.03587640       0.07160394 
